version 3
run General-0-20240329-17:36:14-6260
attr configname General
attr datetime 20240329-17:36:14
attr datetimef 20240329-173614
attr experiment General
attr inifile omnetpp.ini
attr iterationvars ""
attr iterationvarsd ""
attr iterationvarsf ""
attr measurement ""
attr network TandemQueueSystem
attr processid 6260
attr repetition 0
attr replication #0
attr resultdir results
attr runnumber 0
attr seedset 0
config network TandemQueueSystem

vector 0 TandemQueueSystem.Q1 queueLength:vector ETV
attr interpolationmode sample-hold
attr recordingmode vector
attr title "queue length"
vector 1 TandemQueueSystem.Q2 queueLength:vector ETV
attr interpolationmode sample-hold
attr recordingmode vector
attr title "queue length"
vector 2 TandemQueueSystem.sink lifeTime:vector ETV
attr interpolationmode none
attr recordingmode vector
attr title "lifetime of arrived jobs"
attr unit s
0	0	0	0
0	28	24	1
0	33	28	2
0	39	32	3
0	46	36	4
0	47	38	3
0	51	40	4
0	52	41	3
0	56	44	2
0	57	44	3
0	60	47	2
0	64	48	3
0	65	50	2
0	69	52	3
0	75	56	4
0	82	60	5
0	87	64	6
0	92	68	5
0	93	68	6
0	96	71	5
0	100	72	6
0	101	74	5
0	105	76	6
0	106	77	5
0	110	80	4
0	111	80	5
0	118	84	6
1	0	0	0
1	5	7	1
1	10	11	2
1	15	15	3
1	20	19	4
1	24	23	3
1	25	23	4
1	29	26	3
1	34	29	2
1	38	32	1
1	42	35	0
1	53	41	1
1	58	44	2
1	61	47	3
1	66	50	4
1	70	53	3
1	71	53	4
1	74	56	3
1	78	59	2
1	83	62	1
1	88	65	0
1	97	71	1
1	102	74	2
1	107	77	3
1	112	80	4
1	114	83	3
1	115	83	4
1	119	86	3
2	30	26	22
2	35	29	21
2	40	32	20
2	43	35	19
2	48	38	18
2	76	56	32
2	79	59	31
2	84	62	30
2	89	65	29
2	94	68	28

